version 3
run General-0-20240510-21:30:38-2544
attr configname General
attr datetime 20240510-21:30:38
attr datetimef 20240510-213038
attr experiment General
attr inifile omnetpp.ini
attr iterationvars ""
attr iterationvarsd ""
attr iterationvarsf ""
attr measurement ""
attr network test
attr processid 2544
attr repetition 0
attr replication #0
attr resultdir results
attr runnumber 0
attr seedset 0
config image-path ../../inet4.5/images
config network test
config **.arp.typename GlobalArp
config *.radioMedium.backgroundNoise.power -90dBm
config *.configurator.config "xmldoc(\"config.xml\")"
config **.numNodes 5
config *.leachNode[*].hasStatus true
config **.constraintAreaMinX 0m
config **.constraintAreaMaxX 400m
config **.constraintAreaMinY 0m
config **.constraintAreaMaxY 400m
config **.constraintAreaMinZ 0m
config **.constraintAreaMaxZ 0m
config **.wlan[*].radio.typename ApskScalarRadio
config **.wlan[*].**.bitrate 2Mbps
config *.BaseStation.routing.typename LeachBS
config *.leachNode[*].routing.typename Leach
config *.leachNode[*].routing.clusterHeadPercentage 0.1
config *.leachNode[*].routing.roundDuration 30s
config *.leachNode[*].wlan[*].radio.displayCommunicationRange true
config *.leachNode[*].wlan[*].radio.displayInterferenceRange true
config **.radio.centerFrequency 2GHz
config **.radio.bandwidth 2MHz
config **.radio.transmitter.power 1000.0W
config **.radio.transmitter.preambleDuration 10us
config **.radio.transmitter.headerLength 8B
config **.radio.receiver.sensitivity -85dBm
config **.radio.receiver.energyDetection -85dBm
config **.radio.receiver.snirThreshold 4dB
config *.radioMedium.pathLoss.typename FreeSpacePathLoss

vector 0 test.leachNode[0].wlan[0].queue queueLength:vector ETV
attr autoWarmupFilter false
attr interpolationmode sample-hold
attr recordingmode vector
attr source "warmup(atomic(constant0(packetPushEnded) + count(packetPushStarted) - count(packetPulled) - count(packetRemoved) - count(packetDropped)))"
attr title "queue length"
attr unit pk
vector 1 test.leachNode[0].wlan[0].queue queueBitLength:vector ETV
attr autoWarmupFilter false
attr interpolationmode sample-hold
attr recordingmode vector
attr source "warmup(atomic(constant0(packetPushEnded) + sum(packetLength(packetPushStarted)) - sum(packetLength(packetPulled)) - sum(packetLength(packetRemoved)) - sum(packetLength(packetDropped))))"
attr title "queue bit length"
attr unit b
vector 2 test.leachNode[0].udp passedUpPk:vector(count) ETV
attr interpolationmode none
attr recordingmode vector(count)
attr source packetSentToUpper
attr title "packets passed up, count"
vector 3 test.leachNode[0].udp droppedPkWrongPort:vector(count) ETV
attr interpolationmode none
attr recordingmode vector(count)
attr source packetDropReasonIsNoPortFound(packetDropped)
attr title "packets dropped (wrong port), count"
vector 4 test.leachNode[0].udp droppedPkBadChecksum:vector(count) ETV
attr interpolationmode none
attr recordingmode vector(count)
attr source packetDropReasonIsIncorrectlyReceived(packetDropped)
attr title "packets dropped (checksum error), count"
vector 5 test.leachNode[1].wlan[0].queue queueLength:vector ETV
attr autoWarmupFilter false
attr interpolationmode sample-hold
attr recordingmode vector
attr source "warmup(atomic(constant0(packetPushEnded) + count(packetPushStarted) - count(packetPulled) - count(packetRemoved) - count(packetDropped)))"
attr title "queue length"
attr unit pk
vector 6 test.leachNode[1].wlan[0].queue queueBitLength:vector ETV
attr autoWarmupFilter false
attr interpolationmode sample-hold
attr recordingmode vector
attr source "warmup(atomic(constant0(packetPushEnded) + sum(packetLength(packetPushStarted)) - sum(packetLength(packetPulled)) - sum(packetLength(packetRemoved)) - sum(packetLength(packetDropped))))"
attr title "queue bit length"
attr unit b
vector 7 test.leachNode[1].udp passedUpPk:vector(count) ETV
attr interpolationmode none
attr recordingmode vector(count)
attr source packetSentToUpper
attr title "packets passed up, count"
vector 8 test.leachNode[1].udp droppedPkWrongPort:vector(count) ETV
attr interpolationmode none
attr recordingmode vector(count)
attr source packetDropReasonIsNoPortFound(packetDropped)
attr title "packets dropped (wrong port), count"
vector 9 test.leachNode[1].udp droppedPkBadChecksum:vector(count) ETV
attr interpolationmode none
attr recordingmode vector(count)
attr source packetDropReasonIsIncorrectlyReceived(packetDropped)
attr title "packets dropped (checksum error), count"
vector 10 test.leachNode[2].wlan[0].queue queueLength:vector ETV
attr autoWarmupFilter false
attr interpolationmode sample-hold
attr recordingmode vector
attr source "warmup(atomic(constant0(packetPushEnded) + count(packetPushStarted) - count(packetPulled) - count(packetRemoved) - count(packetDropped)))"
attr title "queue length"
attr unit pk
vector 11 test.leachNode[2].wlan[0].queue queueBitLength:vector ETV
attr autoWarmupFilter false
attr interpolationmode sample-hold
attr recordingmode vector
attr source "warmup(atomic(constant0(packetPushEnded) + sum(packetLength(packetPushStarted)) - sum(packetLength(packetPulled)) - sum(packetLength(packetRemoved)) - sum(packetLength(packetDropped))))"
attr title "queue bit length"
attr unit b
vector 12 test.leachNode[2].udp passedUpPk:vector(count) ETV
attr interpolationmode none
attr recordingmode vector(count)
attr source packetSentToUpper
attr title "packets passed up, count"
vector 13 test.leachNode[2].udp droppedPkWrongPort:vector(count) ETV
attr interpolationmode none
attr recordingmode vector(count)
attr source packetDropReasonIsNoPortFound(packetDropped)
attr title "packets dropped (wrong port), count"
vector 14 test.leachNode[2].udp droppedPkBadChecksum:vector(count) ETV
attr interpolationmode none
attr recordingmode vector(count)
attr source packetDropReasonIsIncorrectlyReceived(packetDropped)
attr title "packets dropped (checksum error), count"
vector 15 test.leachNode[3].wlan[0].queue queueLength:vector ETV
attr autoWarmupFilter false
attr interpolationmode sample-hold
attr recordingmode vector
attr source "warmup(atomic(constant0(packetPushEnded) + count(packetPushStarted) - count(packetPulled) - count(packetRemoved) - count(packetDropped)))"
attr title "queue length"
attr unit pk
vector 16 test.leachNode[3].wlan[0].queue queueBitLength:vector ETV
attr autoWarmupFilter false
attr interpolationmode sample-hold
attr recordingmode vector
attr source "warmup(atomic(constant0(packetPushEnded) + sum(packetLength(packetPushStarted)) - sum(packetLength(packetPulled)) - sum(packetLength(packetRemoved)) - sum(packetLength(packetDropped))))"
attr title "queue bit length"
attr unit b
vector 17 test.leachNode[3].udp passedUpPk:vector(count) ETV
attr interpolationmode none
attr recordingmode vector(count)
attr source packetSentToUpper
attr title "packets passed up, count"
vector 18 test.leachNode[3].udp droppedPkWrongPort:vector(count) ETV
attr interpolationmode none
attr recordingmode vector(count)
attr source packetDropReasonIsNoPortFound(packetDropped)
attr title "packets dropped (wrong port), count"
vector 19 test.leachNode[3].udp droppedPkBadChecksum:vector(count) ETV
attr interpolationmode none
attr recordingmode vector(count)
attr source packetDropReasonIsIncorrectlyReceived(packetDropped)
attr title "packets dropped (checksum error), count"
vector 20 test.leachNode[4].wlan[0].queue queueLength:vector ETV
attr autoWarmupFilter false
attr interpolationmode sample-hold
attr recordingmode vector
attr source "warmup(atomic(constant0(packetPushEnded) + count(packetPushStarted) - count(packetPulled) - count(packetRemoved) - count(packetDropped)))"
attr title "queue length"
attr unit pk
vector 21 test.leachNode[4].wlan[0].queue queueBitLength:vector ETV
attr autoWarmupFilter false
attr interpolationmode sample-hold
attr recordingmode vector
attr source "warmup(atomic(constant0(packetPushEnded) + sum(packetLength(packetPushStarted)) - sum(packetLength(packetPulled)) - sum(packetLength(packetRemoved)) - sum(packetLength(packetDropped))))"
attr title "queue bit length"
attr unit b
vector 22 test.leachNode[4].udp passedUpPk:vector(count) ETV
attr interpolationmode none
attr recordingmode vector(count)
attr source packetSentToUpper
attr title "packets passed up, count"
vector 23 test.leachNode[4].udp droppedPkWrongPort:vector(count) ETV
attr interpolationmode none
attr recordingmode vector(count)
attr source packetDropReasonIsNoPortFound(packetDropped)
attr title "packets dropped (wrong port), count"
vector 24 test.leachNode[4].udp droppedPkBadChecksum:vector(count) ETV
attr interpolationmode none
attr recordingmode vector(count)
attr source packetDropReasonIsIncorrectlyReceived(packetDropped)
attr title "packets dropped (checksum error), count"
vector 25 test.BaseStation.wlan[0].queue queueLength:vector ETV
attr autoWarmupFilter false
attr interpolationmode sample-hold
attr recordingmode vector
attr source "warmup(atomic(constant0(packetPushEnded) + count(packetPushStarted) - count(packetPulled) - count(packetRemoved) - count(packetDropped)))"
attr title "queue length"
attr unit pk
vector 26 test.BaseStation.wlan[0].queue queueBitLength:vector ETV
attr autoWarmupFilter false
attr interpolationmode sample-hold
attr recordingmode vector
attr source "warmup(atomic(constant0(packetPushEnded) + sum(packetLength(packetPushStarted)) - sum(packetLength(packetPulled)) - sum(packetLength(packetRemoved)) - sum(packetLength(packetDropped))))"
attr title "queue bit length"
attr unit b
vector 27 test.BaseStation.udp passedUpPk:vector(count) ETV
attr interpolationmode none
attr recordingmode vector(count)
attr source packetSentToUpper
attr title "packets passed up, count"
vector 28 test.BaseStation.udp droppedPkWrongPort:vector(count) ETV
attr interpolationmode none
attr recordingmode vector(count)
attr source packetDropReasonIsNoPortFound(packetDropped)
attr title "packets dropped (wrong port), count"
vector 29 test.BaseStation.udp droppedPkBadChecksum:vector(count) ETV
attr interpolationmode none
attr recordingmode vector(count)
attr source packetDropReasonIsIncorrectlyReceived(packetDropped)
attr title "packets dropped (checksum error), count"
vector 30 test.leachNode[0].energyStorage powerConsumption:vector ETV
attr interpolationmode sample-hold
attr recordingmode vector
attr source powerConsumptionChanged
attr title "Power consumption"
attr unit W
vector 31 test.leachNode[1].energyStorage powerConsumption:vector ETV
attr interpolationmode sample-hold
attr recordingmode vector
attr source powerConsumptionChanged
attr title "Power consumption"
attr unit W
vector 32 test.leachNode[2].energyStorage powerConsumption:vector ETV
attr interpolationmode sample-hold
attr recordingmode vector
attr source powerConsumptionChanged
attr title "Power consumption"
attr unit W
vector 33 test.leachNode[3].energyStorage powerConsumption:vector ETV
attr interpolationmode sample-hold
attr recordingmode vector
attr source powerConsumptionChanged
attr title "Power consumption"
attr unit W
vector 34 test.leachNode[4].energyStorage powerConsumption:vector ETV
attr interpolationmode sample-hold
attr recordingmode vector
attr source powerConsumptionChanged
attr title "Power consumption"
attr unit W
vector 35 test.BaseStation.energyStorage powerConsumption:vector ETV
attr interpolationmode sample-hold
attr recordingmode vector
attr source powerConsumptionChanged
attr title "Power consumption"
attr unit W
vector 36 test.leachNode[0].wlan[0].radio radioMode:vector ETV
attr interpolationmode sample-hold
attr recordingmode vector
attr source radioModeChanged
attr title "Radio mode"
vector 37 test.leachNode[0].wlan[0].radio.energyConsumer powerConsumption:vector ETV
attr interpolationmode sample-hold
attr recordingmode vector
attr source powerConsumptionChanged
attr title "Power consumption"
attr unit W
vector 38 test.leachNode[1].wlan[0].radio radioMode:vector ETV
attr interpolationmode sample-hold
attr recordingmode vector
attr source radioModeChanged
attr title "Radio mode"
vector 39 test.leachNode[1].wlan[0].radio.energyConsumer powerConsumption:vector ETV
attr interpolationmode sample-hold
attr recordingmode vector
attr source powerConsumptionChanged
attr title "Power consumption"
attr unit W
vector 40 test.leachNode[2].wlan[0].radio radioMode:vector ETV
attr interpolationmode sample-hold
attr recordingmode vector
attr source radioModeChanged
attr title "Radio mode"
vector 41 test.leachNode[2].wlan[0].radio.energyConsumer powerConsumption:vector ETV
attr interpolationmode sample-hold
attr recordingmode vector
attr source powerConsumptionChanged
attr title "Power consumption"
attr unit W
vector 42 test.leachNode[3].wlan[0].radio radioMode:vector ETV
attr interpolationmode sample-hold
attr recordingmode vector
attr source radioModeChanged
attr title "Radio mode"
vector 43 test.leachNode[3].wlan[0].radio.energyConsumer powerConsumption:vector ETV
attr interpolationmode sample-hold
attr recordingmode vector
attr source powerConsumptionChanged
attr title "Power consumption"
attr unit W
vector 44 test.leachNode[4].wlan[0].radio radioMode:vector ETV
attr interpolationmode sample-hold
attr recordingmode vector
attr source radioModeChanged
attr title "Radio mode"
vector 45 test.leachNode[4].wlan[0].radio.energyConsumer powerConsumption:vector ETV
attr interpolationmode sample-hold
attr recordingmode vector
attr source powerConsumptionChanged
attr title "Power consumption"
attr unit W
vector 46 test.BaseStation.wlan[0].radio radioMode:vector ETV
attr interpolationmode sample-hold
attr recordingmode vector
attr source radioModeChanged
attr title "Radio mode"
vector 47 test.BaseStation.wlan[0].radio.energyConsumer powerConsumption:vector ETV
attr interpolationmode sample-hold
attr recordingmode vector
attr source powerConsumptionChanged
attr title "Power consumption"
attr unit W
vector 48 test.leachNode[0].wlan[0].radio receptionState:vector ETV
attr interpolationmode sample-hold
attr recordingmode vector
attr source receptionStateChanged
attr title "Radio reception state"
vector 49 test.leachNode[1].wlan[0].radio receptionState:vector ETV
attr interpolationmode sample-hold
attr recordingmode vector
attr source receptionStateChanged
attr title "Radio reception state"
vector 50 test.leachNode[2].wlan[0].radio receptionState:vector ETV
attr interpolationmode sample-hold
attr recordingmode vector
attr source receptionStateChanged
attr title "Radio reception state"
vector 51 test.leachNode[3].wlan[0].radio receptionState:vector ETV
attr interpolationmode sample-hold
attr recordingmode vector
attr source receptionStateChanged
attr title "Radio reception state"
vector 52 test.leachNode[4].wlan[0].radio receptionState:vector ETV
attr interpolationmode sample-hold
attr recordingmode vector
attr source receptionStateChanged
attr title "Radio reception state"
vector 53 test.BaseStation.wlan[0].radio receptionState:vector ETV
attr interpolationmode sample-hold
attr recordingmode vector
attr source receptionStateChanged
attr title "Radio reception state"
vector 54 test.leachNode[4].wlan[0].queue incomingPacketLengths:vector ETV
attr interpolationmode none
attr recordingmode vector
attr source packetLength(packetPushStarted)
attr title "incoming packet lengths"
attr unit b
vector 55 test.leachNode[4].wlan[0].queue incomingDataRate:vector ETV
attr interpolationmode linear
attr recordingmode vector
attr source throughput(packetPushStarted)
attr title "incoming datarate"
attr unit bps
vector 56 test.leachNode[4].energyStorage residualEnergyCapacity:vector ETV
attr interpolationmode linear
attr recordingmode vector
attr source residualEnergyCapacityChanged
attr title "Residual energy capacity"
attr unit J
vector 57 test.leachNode[4].wlan[0].radio transmissionState:vector ETV
attr interpolationmode sample-hold
attr recordingmode vector
attr source transmissionStateChanged
attr title "Radio transmission state"
vector 58 test.leachNode[4].wlan[0].queue queueingTime:vector ETV
attr interpolationmode none
attr recordingmode vector
attr source queueingTime(packetPulled)
attr title "queueing times"
attr unit s
vector 59 test.leachNode[4].wlan[0].queue outgoingPacketLengths:vector ETV
attr interpolationmode none
attr recordingmode vector
attr source packetLength(packetPulled)
attr title "outgoing packet lengths"
attr unit b
vector 60 test.leachNode[4].wlan[0].queue outgoingDataRate:vector ETV
attr interpolationmode linear
attr recordingmode vector
attr source throughput(packetPulled)
attr title "outgoing datarate"
attr unit bps
vector 61 test.leachNode[0].energyStorage residualEnergyCapacity:vector ETV
attr interpolationmode linear
attr recordingmode vector
attr source residualEnergyCapacityChanged
attr title "Residual energy capacity"
attr unit J
vector 62 test.BaseStation.energyStorage residualEnergyCapacity:vector ETV
attr interpolationmode linear
attr recordingmode vector
attr source residualEnergyCapacityChanged
attr title "Residual energy capacity"
attr unit J
vector 63 test.leachNode[2].energyStorage residualEnergyCapacity:vector ETV
attr interpolationmode linear
attr recordingmode vector
attr source residualEnergyCapacityChanged
attr title "Residual energy capacity"
attr unit J
vector 64 test.leachNode[1].energyStorage residualEnergyCapacity:vector ETV
attr interpolationmode linear
attr recordingmode vector
attr source residualEnergyCapacityChanged
attr title "Residual energy capacity"
attr unit J
vector 65 test.leachNode[3].energyStorage residualEnergyCapacity:vector ETV
attr interpolationmode linear
attr recordingmode vector
attr source residualEnergyCapacityChanged
attr title "Residual energy capacity"
attr unit J
vector 66 test.leachNode[2].wlan[0].queue incomingPacketLengths:vector ETV
attr interpolationmode none
attr recordingmode vector
attr source packetLength(packetPushStarted)
attr title "incoming packet lengths"
attr unit b
vector 67 test.leachNode[2].wlan[0].queue incomingDataRate:vector ETV
attr interpolationmode linear
attr recordingmode vector
attr source throughput(packetPushStarted)
attr title "incoming datarate"
attr unit bps
vector 68 test.leachNode[2].wlan[0].radio transmissionState:vector ETV
attr interpolationmode sample-hold
attr recordingmode vector
attr source transmissionStateChanged
attr title "Radio transmission state"
vector 69 test.leachNode[2].wlan[0].queue queueingTime:vector ETV
attr interpolationmode none
attr recordingmode vector
attr source queueingTime(packetPulled)
attr title "queueing times"
attr unit s
vector 70 test.leachNode[2].wlan[0].queue outgoingPacketLengths:vector ETV
attr interpolationmode none
attr recordingmode vector
attr source packetLength(packetPulled)
attr title "outgoing packet lengths"
attr unit b
vector 71 test.leachNode[2].wlan[0].queue outgoingDataRate:vector ETV
attr interpolationmode linear
attr recordingmode vector
attr source throughput(packetPulled)
attr title "outgoing datarate"
attr unit bps
vector 72 test.leachNode[1].wlan[0].queue incomingPacketLengths:vector ETV
attr interpolationmode none
attr recordingmode vector
attr source packetLength(packetPushStarted)
attr title "incoming packet lengths"
attr unit b
vector 73 test.leachNode[1].wlan[0].queue incomingDataRate:vector ETV
attr interpolationmode linear
attr recordingmode vector
attr source throughput(packetPushStarted)
attr title "incoming datarate"
attr unit bps
vector 74 test.leachNode[1].wlan[0].radio transmissionState:vector ETV
attr interpolationmode sample-hold
attr recordingmode vector
attr source transmissionStateChanged
attr title "Radio transmission state"
vector 75 test.leachNode[1].wlan[0].queue queueingTime:vector ETV
attr interpolationmode none
attr recordingmode vector
attr source queueingTime(packetPulled)
attr title "queueing times"
attr unit s
vector 76 test.leachNode[1].wlan[0].queue outgoingPacketLengths:vector ETV
attr interpolationmode none
attr recordingmode vector
attr source packetLength(packetPulled)
attr title "outgoing packet lengths"
attr unit b
vector 77 test.leachNode[1].wlan[0].queue outgoingDataRate:vector ETV
attr interpolationmode linear
attr recordingmode vector
attr source throughput(packetPulled)
attr title "outgoing datarate"
attr unit bps
vector 78 test.BaseStation.wlan[0].mac packetDropNotAddressToUs:vector(packetBytes) ETV
attr interpolationmode none
attr recordingmode vector(packetBytes)
attr source packetDropReasonIsNotAddressedToUs(packetDropped)
attr title "packet drop: not addressed to us, packetBytes"
vector 79 test.leachNode[0].wlan[0].mac packetDropNotAddressToUs:vector(packetBytes) ETV
attr interpolationmode none
attr recordingmode vector(packetBytes)
attr source packetDropReasonIsNotAddressedToUs(packetDropped)
attr title "packet drop: not addressed to us, packetBytes"
vector 80 test.leachNode[3].wlan[0].mac packetDropNotAddressToUs:vector(packetBytes) ETV
attr interpolationmode none
attr recordingmode vector(packetBytes)
attr source packetDropReasonIsNotAddressedToUs(packetDropped)
attr title "packet drop: not addressed to us, packetBytes"
vector 81 test.leachNode[4].wlan[0].mac packetDropNotAddressToUs:vector(packetBytes) ETV
attr interpolationmode none
attr recordingmode vector(packetBytes)
attr source packetDropReasonIsNotAddressedToUs(packetDropped)
attr title "packet drop: not addressed to us, packetBytes"
vector 82 test.leachNode[3].wlan[0].queue incomingPacketLengths:vector ETV
attr interpolationmode none
attr recordingmode vector
attr source packetLength(packetPushStarted)
attr title "incoming packet lengths"
attr unit b
vector 83 test.leachNode[3].wlan[0].queue incomingDataRate:vector ETV
attr interpolationmode linear
attr recordingmode vector
attr source throughput(packetPushStarted)
attr title "incoming datarate"
attr unit bps
vector 84 test.leachNode[3].wlan[0].radio transmissionState:vector ETV
attr interpolationmode sample-hold
attr recordingmode vector
attr source transmissionStateChanged
attr title "Radio transmission state"
vector 85 test.leachNode[3].wlan[0].queue queueingTime:vector ETV
attr interpolationmode none
attr recordingmode vector
attr source queueingTime(packetPulled)
attr title "queueing times"
attr unit s
vector 86 test.leachNode[3].wlan[0].queue outgoingPacketLengths:vector ETV
attr interpolationmode none
attr recordingmode vector
attr source packetLength(packetPulled)
attr title "outgoing packet lengths"
attr unit b
vector 87 test.leachNode[3].wlan[0].queue outgoingDataRate:vector ETV
attr interpolationmode linear
attr recordingmode vector
attr source throughput(packetPulled)
attr title "outgoing datarate"
attr unit bps
vector 88 test.leachNode[1].wlan[0].mac packetDropNotAddressToUs:vector(packetBytes) ETV
attr interpolationmode none
attr recordingmode vector(packetBytes)
attr source packetDropReasonIsNotAddressedToUs(packetDropped)
attr title "packet drop: not addressed to us, packetBytes"
vector 89 test.leachNode[0].wlan[0].queue incomingPacketLengths:vector ETV
attr interpolationmode none
attr recordingmode vector
attr source packetLength(packetPushStarted)
attr title "incoming packet lengths"
attr unit b
vector 90 test.leachNode[0].wlan[0].queue incomingDataRate:vector ETV
attr interpolationmode linear
attr recordingmode vector
attr source throughput(packetPushStarted)
attr title "incoming datarate"
attr unit bps
vector 91 test.leachNode[0].wlan[0].radio transmissionState:vector ETV
attr interpolationmode sample-hold
attr recordingmode vector
attr source transmissionStateChanged
attr title "Radio transmission state"
vector 92 test.leachNode[0].wlan[0].queue queueingTime:vector ETV
attr interpolationmode none
attr recordingmode vector
attr source queueingTime(packetPulled)
attr title "queueing times"
attr unit s
vector 93 test.leachNode[0].wlan[0].queue outgoingPacketLengths:vector ETV
attr interpolationmode none
attr recordingmode vector
attr source packetLength(packetPulled)
attr title "outgoing packet lengths"
attr unit b
vector 94 test.leachNode[0].wlan[0].queue outgoingDataRate:vector ETV
attr interpolationmode linear
attr recordingmode vector
attr source throughput(packetPulled)
attr title "outgoing datarate"
attr unit bps
vector 95 test.BaseStation.wlan[0].radio transmissionState:vector ETV
attr interpolationmode sample-hold
attr recordingmode vector
attr source transmissionStateChanged
attr title "Radio transmission state"
vector 96 test.leachNode[2].wlan[0].mac packetDropNotAddressToUs:vector(packetBytes) ETV
attr interpolationmode none
attr recordingmode vector(packetBytes)
attr source packetDropReasonIsNotAddressedToUs(packetDropped)
attr title "packet drop: not addressed to us, packetBytes"
0	0	0	0
0	0	0	0
0	0	0	0
0	0	0	0
0	0	0	0
0	181	62.783054250553	1
0	183	62.785102250553	0
0	593	67.290771687343	1
0	594	67.290771687343	2
0	596	67.292499687343	1
0	634	67.295536229537	0
0	788	150.368241537362	1
0	790	150.368689537362	0
0	1000	154.540556747184	1
0	1002	154.541964747184	0
0	1092	155.545063994568	1
0	1093	155.545063994568	2
0	1115	155.546725994568	1
0	1153	155.548802311264	0
0	1254	156.54730257174	1
0	1255	156.54730257174	2
0	1283	156.54896457174	1
0	1321	156.552320888436	0
0	1424	157.547621831572	1
0	1425	157.547621831572	2
0	1451	157.548963831572	1
0	1489	157.551360148268	0
0	1594	158.546663051588	1
0	1595	158.546663051588	2
0	1619	158.547045051588	1
0	1657	158.550081368284	0
0	1747	182.889714707899	1
0	1749	182.890162707899	0
0	1955	185.891120331591	1
0	1956	185.891120331591	2
0	1958	185.893488331591	1
0	1996	185.896205955283	0
0	2802	213.813389149419	1
0	2804	213.814157149419	0
0	3382	218.957964206998	1
0	3383	218.957964206998	2
0	3385	218.958412206998	1
0	3423	218.9601693592	0
0	3587	330.368241537362	1
0	3589	330.369649537362	0
0	3799	334.37722217165	1
0	3801	334.37735017165	0
0	3889	335.379488476054	1
0	3890	335.379488476054	2
0	3914	335.380830476054	1
0	3952	335.38418679275	0
0	4059	336.380129419034	1
0	4060	336.380129419034	2
0	4082	336.381151419034	1
0	4120	336.38226773573	0
0	4221	337.381727996206	1
0	4222	337.381727996206	2
0	4250	337.383389996206	1
0	4288	337.386106312902	0
0	4391	338.381407256038	1
0	4392	338.381407256038	2
0	4418	338.383069256038	1
0	4456	338.385145572734	0
0	4717	513.551156952469	1
0	4719	513.551924952469	0
0	5129	518.12639882469	1
0	5130	518.12639882469	2
0	5132	518.12876682469	1
0	5170	518.131803366884	0
0	5428	543.146901440387	1
0	5430	543.148629440387	0
0	5884	547.881846018481	1
0	5885	547.881846018481	2
0	5887	547.883574018481	1
0	5925	547.886291642173	0
0	6263	572.922184251742	1
0	6265	572.924552251742	0
0	6471	575.92774916402	1
0	6472	575.92774916402	2
0	6474	575.92883716402	1
0	6512	575.931874076298	0
0	7318	603.159293950838	1
0	7320	603.161341950838	0
0	7898	608.981464337016	1
0	7899	608.981464337016	2
0	7901	608.982872337016	1
0	7939	608.98526887921	0
0	8123	780.368241537362	1
0	8125	780.369329537362	0
0	8335	784.427664414156	1
0	8337	784.429392414156	0
0	8423	785.435049498544	1
0	8424	785.435049498544	2
0	8450	785.435751498544	1
0	8488	785.43718781524	0
0	8595	786.43217166154	1
0	8596	786.43217166154	2
0	8618	786.43351366154	1
0	8656	786.434949978236	0
0	8757	787.433770238712	1
0	8758	787.433770238712	2
0	8786	787.434472238712	1
0	8824	787.435908555408	0
0	8929	788.43217071856	1
0	8930	788.43217071856	2
0	8954	788.43447271856	1
0	8992	788.437829035256	0
0	9214	813.662204972779	1
0	9216	813.663292972779	0
0	9794	819.012844009241	1
0	9795	819.012844009241	2
0	9797	819.012972009241	1
0	9835	819.015049632933	0
0	10136	873.099624089551	1
0	10138	873.099752089551	0
1	0	0	0
1	0	0	0
1	0	0	0
1	0	0	0
1	0	0	0
1	181	62.783054250553	288
1	183	62.785102250553	0
1	593	67.290771687343	928
1	594	67.290771687343	1344
1	596	67.292499687343	416
1	634	67.295536229537	0
1	788	150.368241537362	288
1	790	150.368689537362	0
1	1000	154.540556747184	288
1	1002	154.541964747184	0
1	1092	155.545063994568	928
1	1093	155.545063994568	1344
1	1115	155.546725994568	416
1	1153	155.548802311264	0
1	1254	156.54730257174	928
1	1255	156.54730257174	1344
1	1283	156.54896457174	416
1	1321	156.552320888436	0
1	1424	157.547621831572	928
1	1425	157.547621831572	1344
1	1451	157.548963831572	416
1	1489	157.551360148268	0
1	1594	158.546663051588	928
1	1595	158.546663051588	1344
1	1619	158.547045051588	416
1	1657	158.550081368284	0
1	1747	182.889714707899	288
1	1749	182.890162707899	0
1	1955	185.891120331591	928
1	1956	185.891120331591	1344
1	1958	185.893488331591	416
1	1996	185.896205955283	0
1	2802	213.813389149419	288
1	2804	213.814157149419	0
1	3382	218.957964206998	928
1	3383	218.957964206998	1344
1	3385	218.958412206998	416
1	3423	218.9601693592	0
1	3587	330.368241537362	288
1	3589	330.369649537362	0
1	3799	334.37722217165	288
1	3801	334.37735017165	0
1	3889	335.379488476054	928
1	3890	335.379488476054	1344
1	3914	335.380830476054	416
1	3952	335.38418679275	0
1	4059	336.380129419034	928
1	4060	336.380129419034	1344
1	4082	336.381151419034	416
1	4120	336.38226773573	0
1	4221	337.381727996206	928
1	4222	337.381727996206	1344
1	4250	337.383389996206	416
1	4288	337.386106312902	0
1	4391	338.381407256038	928
1	4392	338.381407256038	1344
1	4418	338.383069256038	416
1	4456	338.385145572734	0
1	4717	513.551156952469	288
1	4719	513.551924952469	0
1	5129	518.12639882469	928
1	5130	518.12639882469	1344
1	5132	518.12876682469	416
1	5170	518.131803366884	0
1	5428	543.146901440387	288
1	5430	543.148629440387	0
1	5884	547.881846018481	928
1	5885	547.881846018481	1344
1	5887	547.883574018481	416
1	5925	547.886291642173	0
1	6263	572.922184251742	288
1	6265	572.924552251742	0
1	6471	575.92774916402	928
1	6472	575.92774916402	1344
1	6474	575.92883716402	416
1	6512	575.931874076298	0
1	7318	603.159293950838	288
1	7320	603.161341950838	0
1	7898	608.981464337016	928
1	7899	608.981464337016	1344
1	7901	608.982872337016	416
1	7939	608.98526887921	0
1	8123	780.368241537362	288
1	8125	780.369329537362	0
1	8335	784.427664414156	288
1	8337	784.429392414156	0
1	8423	785.435049498544	928
1	8424	785.435049498544	1344
1	8450	785.435751498544	416
1	8488	785.43718781524	0
1	8595	786.43217166154	928
1	8596	786.43217166154	1344
1	8618	786.43351366154	416